TITLE = "Zone and variables separated by commas"
VARIABLES = X, Y, "foo bar",  foobar
# Random comment
ZONE N=4, E =1,ET= QUADRILATERAL , T = "Hex with commas"
# Random comment
,   F = FEBLOCK, VARLOCATION  =(  [4]= CELLCENTERED )
 0.0 1.0 1.0 0.0
 0.0 0.0 1.0 1.0
# Random comment
 1.0 2.0 3.0 4.0
# Random comment
 42.0
# Random comment
 1 2 3 4